# Residuals         
# Time              	p                   	Ux                  	Uy                  	Uz                  
1                   	9.999999963260e-01	9.999999978420e-01	1.000000000000e+00	1.000000000000e+00
2                   	1.050569590310e-01	1.661251776730e-01	4.763603552280e-01	4.556464003500e-01
3                   	9.288443743720e-02	1.177888674960e-01	3.819130192460e-01	3.530754188650e-01
4                   	9.735252069980e-02	6.977525115920e-02	2.685464738200e-01	2.536752399720e-01
5                   	8.696282460030e-02	5.340520147830e-02	2.037299425590e-01	2.027609637060e-01
6                   	8.832917083050e-02	4.331289650090e-02	1.652558250460e-01	1.622919202270e-01
7                   	9.355771876610e-02	3.896269421990e-02	1.622202787610e-01	1.604558223210e-01
8                   	9.465936938340e-02	3.726189656090e-02	1.657944010660e-01	1.671138804350e-01
9                   	9.013189245440e-02	3.517200666960e-02	1.565895898140e-01	1.603720261310e-01
10                  	8.356676952320e-02	3.276294076330e-02	1.399005766510e-01	1.445934631540e-01
11                  	7.569777113200e-02	3.003477322640e-02	1.197915705810e-01	1.220983031480e-01
12                  	6.777490319160e-02	2.714869667050e-02	1.019911977660e-01	1.016198133320e-01
13                  	6.002168291200e-02	2.425864765870e-02	8.979061218370e-02	8.827492357160e-02
14                  	5.386233485200e-02	2.144156046150e-02	7.870260872600e-02	7.875984608700e-02
15                  	5.004393202680e-02	1.932184009040e-02	7.089060471200e-02	7.306639896110e-02
16                  	4.733378103080e-02	1.796704335990e-02	6.585049771770e-02	6.911872185950e-02
17                  	4.568634354710e-02	1.741334832800e-02	6.252297087670e-02	6.570195943500e-02
18                  	4.416131516060e-02	1.704079095190e-02	5.834730695120e-02	6.107016234300e-02
19                  	4.286009873770e-02	1.650978469230e-02	5.411100121760e-02	5.577863733320e-02
20                  	4.183133845730e-02	1.580021782580e-02	5.025992116160e-02	5.148386778330e-02
21                  	4.052200591280e-02	1.486334805140e-02	4.634068577300e-02	4.698396096420e-02
22                  	3.920076563700e-02	1.400725675900e-02	4.313358053700e-02	4.303862133740e-02
23                  	3.754139705060e-02	1.307823397560e-02	4.038168001010e-02	3.957224484350e-02
24                  	3.576045524310e-02	1.212618754560e-02	3.758938458670e-02	3.634144384600e-02
25                  	3.385505398870e-02	1.126974089880e-02	3.483305919520e-02	3.335746160530e-02
26                  	3.220075004370e-02	1.061013567150e-02	3.220430871650e-02	3.066020047700e-02
27                  	3.054479143080e-02	9.937956767520e-03	3.006603241600e-02	2.842734941960e-02
28                  	2.880918357860e-02	9.210424731760e-03	2.799843279860e-02	2.639371295550e-02
29                  	2.696451808560e-02	8.591478918320e-03	2.589782212030e-02	2.445912181890e-02
30                  	2.522566260630e-02	8.079213989130e-03	2.396020633840e-02	2.277746765790e-02
31                  	2.346719662950e-02	7.624318232470e-03	2.228001488200e-02	2.145527611780e-02
32                  	2.186180403700e-02	7.298916482210e-03	2.099579650550e-02	2.031869630390e-02
33                  	2.050396475800e-02	7.083789835320e-03	2.009587320760e-02	1.940323620490e-02
34                  	1.942303820580e-02	6.950466635270e-03	1.957262618960e-02	1.876032386400e-02
35                  	1.851479205860e-02	6.983253147280e-03	1.945358050940e-02	1.832444491880e-02
36                  	1.791111072370e-02	7.151119690440e-03	1.978438592560e-02	1.812881729840e-02
37                  	1.781029528990e-02	7.388405371230e-03	2.038663744140e-02	1.830283982270e-02
38                  	1.786604816040e-02	7.543641041150e-03	2.089027200940e-02	1.887205355190e-02
39                  	1.793365898650e-02	7.468727613340e-03	2.102072424470e-02	1.934634534660e-02
40                  	1.819671840270e-02	7.039373353530e-03	2.031334612630e-02	1.920106854160e-02
41                  	1.852790891720e-02	6.491553507640e-03	1.932049040930e-02	1.853750923450e-02
42                  	1.868497945990e-02	5.975919408360e-03	1.846850632200e-02	1.779785658810e-02
43                  	1.889641720270e-02	5.600218153450e-03	1.775693873020e-02	1.688903246560e-02
44                  	1.869752472200e-02	5.223106019760e-03	1.700484224690e-02	1.603915834500e-02
45                  	1.839852476680e-02	4.819099767140e-03	1.612421770510e-02	1.515957008130e-02
46                  	1.776192083210e-02	4.505241089430e-03	1.530591322380e-02	1.429199807470e-02
47                  	1.701436220080e-02	4.170297985930e-03	1.444759679180e-02	1.343614330640e-02
48                  	1.619681977970e-02	3.851260765870e-03	1.339745072540e-02	1.250310404020e-02
49                  	1.500471250730e-02	3.535590955540e-03	1.231397665010e-02	1.155345816510e-02
50                  	1.389943417490e-02	3.194204442240e-03	1.129949530420e-02	1.049959460270e-02
51                  	1.308797325480e-02	2.944067134560e-03	1.040511871860e-02	9.524487521570e-03
52                  	1.234597924710e-02	2.751532349780e-03	9.616505471990e-03	8.696990781120e-03
53                  	1.171628847080e-02	2.596811986590e-03	8.984902685200e-03	8.057307440910e-03
54                  	1.102206130710e-02	2.469605584980e-03	8.434543569220e-03	7.491524527550e-03
55                  	1.041694186670e-02	2.343924073450e-03	7.910374874820e-03	7.022906909570e-03
56                  	9.721417567910e-03	2.246806490710e-03	7.470002799780e-03	6.631843295350e-03
57                  	9.226726215890e-03	2.178650146010e-03	7.145178557720e-03	6.286226716440e-03
58                  	9.023103714290e-03	2.106077873330e-03	6.921189182860e-03	6.045796722040e-03
59                  	9.031769886160e-03	2.064022964800e-03	6.901416551160e-03	6.004654022160e-03
60                  	9.164612521600e-03	2.050147137280e-03	6.964272005940e-03	5.973677810920e-03
61                  	9.287985322570e-03	2.042110083510e-03	7.061330502100e-03	5.981458698370e-03
62                  	9.236805442910e-03	2.048085700820e-03	7.172073743250e-03	6.008488337610e-03
63                  	9.174652962990e-03	2.062676288290e-03	7.249436396910e-03	6.028821150820e-03
64                  	9.181339275020e-03	2.069099650970e-03	7.319222284890e-03	6.110570520600e-03
65                  	9.177941296880e-03	2.076783058260e-03	7.380943075380e-03	6.185758014580e-03
66                  	9.379504736580e-03	2.103337620710e-03	7.473853930040e-03	6.345077341250e-03
67                  	9.719060741860e-03	2.134424136280e-03	7.491343418190e-03	6.393862189490e-03
68                  	9.697795070100e-03	2.157223178800e-03	7.459700918160e-03	6.522336820620e-03
69                  	9.652504990930e-03	2.169099767720e-03	7.384103949950e-03	6.408257427240e-03
70                  	9.509939561890e-03	2.122410255070e-03	7.206695234420e-03	6.339937614690e-03
71                  	9.176697457790e-03	2.086385206640e-03	7.082819298060e-03	6.223460303860e-03
72                  	8.934485124330e-03	2.007616775020e-03	6.891833516030e-03	6.119326455440e-03
73                  	8.798826356020e-03	1.951584351490e-03	6.631963621480e-03	5.951126806640e-03
74                  	8.393313457330e-03	1.835420924500e-03	6.270655316230e-03	5.763144291110e-03
75                  	8.078499843620e-03	1.759840900840e-03	5.999770663250e-03	5.535244304730e-03
76                  	7.883112719290e-03	1.647234062630e-03	5.701678191040e-03	5.269402174670e-03
77                  	7.542707482710e-03	1.553782370190e-03	5.467964398070e-03	5.004017257370e-03
78                  	7.347094657270e-03	1.515342877580e-03	5.243595692230e-03	4.815135883080e-03
79                  	7.220928101320e-03	1.469182756560e-03	5.061601026460e-03	4.638253173430e-03
80                  	6.846861583900e-03	1.458098700690e-03	4.896384356520e-03	4.529574112320e-03
81                  	6.489092528100e-03	1.417463748830e-03	4.789597649340e-03	4.420280703360e-03
82                  	6.212334195950e-03	1.441236084860e-03	4.750702573010e-03	4.352438498470e-03
83                  	6.085429998050e-03	1.418486394340e-03	4.687465068250e-03	4.292474091840e-03
84                  	5.927403078520e-03	1.429035620090e-03	4.729089757410e-03	4.308708341260e-03
85                  	5.983976864920e-03	1.421338142790e-03	4.749807655510e-03	4.353830184780e-03
86                  	6.020333876310e-03	1.400961202700e-03	4.676202473750e-03	4.306702668040e-03
87                  	5.701626503360e-03	1.363985651240e-03	4.545534600330e-03	4.255908972300e-03
88                  	5.448767604950e-03	1.318188617220e-03	4.428290423560e-03	4.142847621380e-03
89                  	5.397184365550e-03	1.265113198780e-03	4.278521754440e-03	4.038711005500e-03
90                  	5.313987989140e-03	1.217960978190e-03	4.209929514290e-03	3.951038562810e-03
91                  	5.359052570690e-03	1.208355546480e-03	4.220737715960e-03	3.915536073180e-03
92                  	5.586337904910e-03	1.179306096900e-03	4.230897330340e-03	3.839175403140e-03
93                  	5.578143822560e-03	1.140300944350e-03	4.177560432340e-03	3.783996496940e-03
94                  	5.500636926020e-03	1.122565132160e-03	4.182167339120e-03	3.753423708190e-03
95                  	5.603510846730e-03	1.118495737240e-03	4.243647641230e-03	3.728108652940e-03
96                  	5.671647104900e-03	1.122302166210e-03	4.310911178930e-03	3.758779442500e-03
97                  	5.771547876520e-03	1.133504653750e-03	4.386028808650e-03	3.788234735180e-03
98                  	6.024526281840e-03	1.127305517490e-03	4.412943032680e-03	3.805063748640e-03
99                  	6.124395487290e-03	1.097738086880e-03	4.343053377930e-03	3.751321759430e-03
100                 	6.126080422130e-03	1.071091658180e-03	4.277108813010e-03	3.724808892160e-03
101                 	6.139007025990e-03	1.067606917930e-03	4.292762247830e-03	3.685477915670e-03
102                 	6.244234936450e-03	1.063432194110e-03	4.311258037310e-03	3.733772525480e-03
103                 	6.165610170530e-03	1.066343723400e-03	4.323907057160e-03	3.754330081240e-03
104                 	6.221710241680e-03	1.061564348800e-03	4.277842158570e-03	3.759274069960e-03
105                 	6.166734585750e-03	1.046492201520e-03	4.172659615630e-03	3.666684978260e-03
106                 	5.981354049950e-03	1.022827116760e-03	4.005969955730e-03	3.588552889180e-03
107                 	5.642339741940e-03	1.020649638500e-03	3.866993416460e-03	3.423127647700e-03
108                 	5.517776399140e-03	9.812759395570e-04	3.744873872320e-03	3.318277263050e-03
109                 	5.291197973690e-03	9.886479368890e-04	3.670176439510e-03	3.238998881410e-03
110                 	5.220603965910e-03	9.872165833740e-04	3.682658357830e-03	3.181730129560e-03
111                 	5.148718318600e-03	1.014787648280e-03	3.728400140470e-03	3.192485998440e-03
112                 	4.961355115400e-03	9.970102094570e-04	3.674613075110e-03	3.115401468940e-03
113                 	4.660972331330e-03	9.786749522230e-04	3.563709502250e-03	3.018817170800e-03
114                 	4.468879908730e-03	9.369897236930e-04	3.396519595220e-03	2.893295694990e-03
115                 	4.425267483770e-03	8.822658562420e-04	3.224227037150e-03	2.834104271760e-03
116                 	4.322553546520e-03	8.455357939450e-04	3.092856845910e-03	2.735177565430e-03
117                 	4.382675437230e-03	8.311494886420e-04	3.076651438360e-03	2.719050191150e-03
118                 	4.344618706950e-03	7.989063820830e-04	2.989634009020e-03	2.610802012110e-03
119                 	4.198460403150e-03	7.633403944410e-04	2.821329478970e-03	2.500775238870e-03
120                 	4.027737540310e-03	7.343943834590e-04	2.652146288810e-03	2.363955555090e-03
121                 	3.910852207700e-03	7.128262306430e-04	2.547185413970e-03	2.302743877030e-03
122                 	3.737755200060e-03	6.909200935830e-04	2.437484814650e-03	2.222949729900e-03
123                 	3.627406111750e-03	6.839753604160e-04	2.389791644900e-03	2.133471419760e-03
124                 	3.607606198400e-03	6.584282097090e-04	2.327430739160e-03	2.066243712820e-03
125                 	3.555742125150e-03	6.370769380130e-04	2.241436566420e-03	1.994057602040e-03
126                 	3.397779656450e-03	6.091727109630e-04	2.159809733360e-03	1.925793003330e-03
127                 	3.364769188780e-03	5.957470538640e-04	2.112196574880e-03	1.890182855950e-03
128                 	3.273585574370e-03	5.805226380720e-04	2.078284710600e-03	1.895488775210e-03
129                 	3.245804900100e-03	5.761898524710e-04	2.054816719460e-03	1.816598608880e-03
130                 	3.243188857350e-03	5.705835292290e-04	2.049285513490e-03	1.827907866090e-03
131                 	3.238819028120e-03	5.459742685430e-04	2.009291474920e-03	1.767902899430e-03
132                 	3.101795095930e-03	5.151730159000e-04	1.917746812080e-03	1.679619605600e-03
133                 	3.056679449700e-03	4.946148862960e-04	1.807625393450e-03	1.590906788220e-03
134                 	2.949738877500e-03	4.789167316860e-04	1.759921177250e-03	1.588698015020e-03
135                 	2.916821798730e-03	4.790380801930e-04	1.729083033870e-03	1.510867731790e-03
136                 	2.857465337050e-03	4.886347322270e-04	1.718846280710e-03	1.498442963470e-03
137                 	2.900703448870e-03	4.855290025890e-04	1.722176933340e-03	1.506920412930e-03
138                 	2.747358149530e-03	4.773048480000e-04	1.678004723610e-03	1.458683148920e-03
139                 	2.723265432890e-03	4.635688161770e-04	1.562627654160e-03	1.373907339360e-03
140                 	2.638998344280e-03	4.511961481580e-04	1.518616297520e-03	1.397047713620e-03
141                 	2.535090260620e-03	4.474742279040e-04	1.491308478260e-03	1.337094835080e-03
142                 	2.558356648390e-03	4.487281753180e-04	1.475102751430e-03	1.311942790110e-03
143                 	2.552200055060e-03	4.476361709890e-04	1.494150328020e-03	1.326677460390e-03
144                 	2.588175656070e-03	4.414461896710e-04	1.503068358140e-03	1.321601406190e-03
145                 	2.502734689990e-03	4.440895913290e-04	1.466418029580e-03	1.259047965580e-03
146                 	2.421633948320e-03	4.161200142160e-04	1.390672089420e-03	1.253140801710e-03
147                 	2.293554951810e-03	3.958605394790e-04	1.330042782660e-03	1.232451153460e-03
148                 	2.267705162730e-03	3.929938417650e-04	1.312596523100e-03	1.167022470680e-03
149                 	2.310744815020e-03	3.915863692140e-04	1.340471688260e-03	1.197296072470e-03
150                 	2.292315770200e-03	4.038806466990e-04	1.409934470950e-03	1.228664080410e-03
151                 	2.342809751760e-03	4.147526516520e-04	1.404120669250e-03	1.192001081600e-03
152                 	2.260701787990e-03	4.213636924900e-04	1.402521397400e-03	1.262549140250e-03
153                 	2.168670149330e-03	4.278873998250e-04	1.414770660940e-03	1.318059593060e-03
154                 	2.139350436550e-03	4.443242735210e-04	1.436205162710e-03	1.309860005090e-03
155                 	2.169769019220e-03	4.458497372810e-04	1.456792772660e-03	1.350880703650e-03
156                 	2.168901319830e-03	4.465484421520e-04	1.505175143760e-03	1.371478035560e-03
157                 	2.226177404210e-03	4.486106640660e-04	1.489009841710e-03	1.315186033920e-03
158                 	2.196266824010e-03	4.452619143440e-04	1.468518630380e-03	1.357751422250e-03
159                 	2.164460910170e-03	4.532426380150e-04	1.513237462050e-03	1.423410467120e-03
160                 	2.206034728310e-03	4.700880026500e-04	1.565254004020e-03	1.415687909410e-03
161                 	2.311685431370e-03	4.763274071400e-04	1.605180234410e-03	1.447884803410e-03
162                 	2.318411285910e-03	4.758310221930e-04	1.653629632040e-03	1.474355715360e-03
163                 	2.391489404240e-03	4.699543330130e-04	1.626078259710e-03	1.406432134850e-03
164                 	2.343177225910e-03	4.551543713850e-04	1.556032858240e-03	1.387629985260e-03
165                 	2.290130308990e-03	4.453461214680e-04	1.552304678830e-03	1.413695370920e-03
166                 	2.331083556450e-03	4.485527852830e-04	1.560562077240e-03	1.365927822650e-03
167                 	2.403667303970e-03	4.473714236080e-04	1.570118484740e-03	1.370067903930e-03
168                 	2.403004754310e-03	4.476627125600e-04	1.628755188410e-03	1.403078898500e-03
169                 	2.434865831510e-03	4.394751433520e-04	1.615491928470e-03	1.362145825470e-03
170                 	2.389967223880e-03	4.179325737480e-04	1.553053341370e-03	1.340729559170e-03
171                 	2.320967974560e-03	4.078162319760e-04	1.538628202290e-03	1.362566425410e-03
172                 	2.348518577620e-03	4.103173964340e-04	1.537059222960e-03	1.328640048860e-03
173                 	2.402835436090e-03	4.139188249390e-04	1.550358752430e-03	1.340383726750e-03
174                 	2.384878361660e-03	4.240400064870e-04	1.623724609620e-03	1.388486620470e-03
175                 	2.395288350050e-03	4.144740801380e-04	1.605235512880e-03	1.355880085370e-03
176                 	2.351797028060e-03	3.890165205650e-04	1.496090027030e-03	1.309688921320e-03
177                 	2.303173648100e-03	3.804038182720e-04	1.465332409120e-03	1.311505830030e-03
178                 	2.318591852150e-03	3.851478933480e-04	1.475191305250e-03	1.276746158620e-03
179                 	2.356494348890e-03	3.871776450070e-04	1.491751515410e-03	1.281757192610e-03
180                 	2.380379196750e-03	3.997465693150e-04	1.544534368190e-03	1.322902134420e-03
181                 	2.392892211740e-03	3.890306367440e-04	1.516755673550e-03	1.294082915110e-03
182                 	2.323816435580e-03	3.599566869460e-04	1.415494015690e-03	1.247236697080e-03
183                 	2.271407316030e-03	3.486391847710e-04	1.377683273500e-03	1.237793973390e-03
184                 	2.255212685000e-03	3.405147723580e-04	1.366738481620e-03	1.189297479070e-03
185                 	2.298541997490e-03	3.311142377380e-04	1.342685445940e-03	1.166804193290e-03
186                 	2.274815393420e-03	3.403218537290e-04	1.356953736800e-03	1.174533249430e-03
187                 	2.269228668130e-03	3.343344885450e-04	1.332230722890e-03	1.144608580800e-03
188                 	2.183324351160e-03	3.179389231210e-04	1.245498278110e-03	1.100754379000e-03
189                 	2.133695783920e-03	3.130374930840e-04	1.200979545100e-03	1.090360762860e-03
190                 	2.093796756380e-03	3.007721010580e-04	1.162820454590e-03	1.031024282810e-03
191                 	2.054327745140e-03	2.868494768690e-04	1.122850939840e-03	9.964641382500e-04
192                 	2.047166920570e-03	2.942202677660e-04	1.128872736080e-03	9.964577648330e-04
193                 	2.045666673850e-03	2.894584808230e-04	1.112834416990e-03	9.623111716920e-04
194                 	1.956879118660e-03	2.722580358980e-04	1.037017699890e-03	9.175110219300e-04
195                 	1.905367397240e-03	2.687250371440e-04	1.002261661890e-03	9.057679070550e-04
196                 	1.883133896710e-03	2.620460834340e-04	9.595778742600e-04	8.522498630360e-04
