# Residuals         
# Time              	p                   	Ux                  	Uy                  	Uz                  
1                   	9.999999971190e-01	1.000000000000e+00	1.000000000000e+00	9.999999993830e-01
2                   	3.036428921910e-01	5.109015916930e-01	4.885875555500e-01	1.786789024400e-01
3                   	2.667931415960e-01	3.112688244330e-01	2.955444751300e-01	1.288495584270e-01
4                   	1.731531310410e-01	2.081619365560e-01	2.175566977320e-01	8.055506579170e-02
5                   	1.293054516050e-01	1.518907895670e-01	1.615914960070e-01	6.129786563140e-02
6                   	1.151078138440e-01	1.120159914690e-01	1.218430249030e-01	5.222146275610e-02
7                   	1.078325476380e-01	9.088164382680e-02	9.943469517220e-02	5.199781541200e-02
8                   	1.026958274700e-01	8.288899690890e-02	9.105491850990e-02	4.407262008230e-02
9                   	1.145070597630e-01	7.845464832850e-02	8.311826526020e-02	4.111730694670e-02
10                  	9.819663763130e-02	8.893822371180e-02	1.297018403210e-01	5.591138991510e-02
11                  	1.029644228000e-01	9.130927132280e-02	9.551844040690e-02	4.298252262950e-02
12                  	9.994642831830e-02	7.883800337490e-02	8.997836724040e-02	4.217091630330e-02
13                  	9.269404214220e-02	6.581631041340e-02	7.630839061150e-02	3.873759424870e-02
14                  	8.334155495360e-02	5.778800528690e-02	6.465161215190e-02	3.636861895350e-02
15                  	7.756583668950e-02	5.403706395360e-02	5.838405843990e-02	3.453459400950e-02
16                  	7.614825769470e-02	5.025394331950e-02	5.178157945300e-02	3.189620104100e-02
17                  	7.245755033060e-02	4.896169386110e-02	5.036213438790e-02	2.973929538330e-02
18                  	6.968271053000e-02	4.648840825930e-02	4.691606190820e-02	2.801651124620e-02
19                  	6.453796594140e-02	4.469450011900e-02	4.502533232760e-02	2.690423855490e-02
20                  	6.216809822730e-02	4.260126541480e-02	4.175144612410e-02	2.576253989340e-02
21                  	6.023634732530e-02	4.029465940940e-02	3.889885010880e-02	2.431318443450e-02
22                  	5.880797520510e-02	3.719528493830e-02	3.553861203230e-02	2.312406321830e-02
23                  	5.771236003680e-02	3.442907823880e-02	3.290844613100e-02	2.196068632500e-02
24                  	5.510662313120e-02	3.221949236390e-02	3.087140880620e-02	2.119611047780e-02
25                  	5.409848374720e-02	3.073384491760e-02	2.974292272140e-02	2.042828289350e-02
26                  	5.308255933670e-02	2.974399875110e-02	2.944522461470e-02	2.008446064920e-02
27                  	5.399502998800e-02	2.866724118020e-02	2.881847135940e-02	1.941454773970e-02
28                  	5.592006722800e-02	2.676577141510e-02	2.700017820380e-02	1.840730084420e-02
29                  	5.573070171660e-02	2.823029577770e-02	2.884926101500e-02	1.904949135210e-02
30                  	5.708156669830e-02	2.669424912090e-02	2.659933237310e-02	1.810653907540e-02
31                  	5.648261192920e-02	2.775406322980e-02	2.762268085960e-02	1.947268231910e-02
32                  	5.477261339580e-02	2.593180693120e-02	2.518669228610e-02	1.780666732030e-02
33                  	5.237566169770e-02	2.498872122220e-02	2.396302463400e-02	1.733171616300e-02
34                  	4.960415205950e-02	2.574760479790e-02	2.474118744650e-02	1.866853043900e-02
35                  	4.608969517480e-02	2.377992877130e-02	2.213281548640e-02	1.704526175570e-02
36                  	4.254700024570e-02	2.419346807530e-02	2.286815063430e-02	1.720756511090e-02
37                  	4.107888323400e-02	2.241114561910e-02	2.074750551500e-02	1.615751798280e-02
38                  	3.839711140940e-02	2.294659020600e-02	2.189357680760e-02	1.655463378600e-02
39                  	3.665237772460e-02	2.199067574210e-02	2.113463121800e-02	1.571927301720e-02
40                  	3.557422335250e-02	2.100574448710e-02	2.033970046370e-02	1.554882453280e-02
41                  	3.414089429560e-02	2.005695667830e-02	1.975065489970e-02	1.464821476860e-02
42                  	3.362983115180e-02	1.936723378370e-02	1.929748531620e-02	1.465239464360e-02
43                  	3.237036257820e-02	1.874655073150e-02	1.876129405220e-02	1.400453840780e-02
44                  	3.252528261410e-02	1.832679950530e-02	1.827203940730e-02	1.428836602700e-02
45                  	3.089418699770e-02	1.782455612160e-02	1.766972956760e-02	1.353713528750e-02
46                  	3.113115108010e-02	1.744720497590e-02	1.709157164630e-02	1.403642347020e-02
47                  	2.883944315020e-02	1.707756438800e-02	1.659200798220e-02	1.306608074990e-02
48                  	2.795927910500e-02	1.708150629180e-02	1.654927870270e-02	1.324813044810e-02
49                  	2.826757490600e-02	1.668136948390e-02	1.618558083050e-02	1.343898404610e-02
50                  	2.699642965300e-02	1.661681967020e-02	1.625658961180e-02	1.266010354750e-02
51                  	2.854739596170e-02	1.698096438020e-02	1.687145203580e-02	1.308310280640e-02
52                  	2.786591241600e-02	1.769579482690e-02	1.775031874760e-02	1.264370065800e-02
53                  	2.789955433440e-02	1.786745416240e-02	1.800222874130e-02	1.210075046940e-02
54                  	2.768574653880e-02	1.839560866310e-02	1.874897999730e-02	1.222763461690e-02
55                  	2.793178301380e-02	1.865600408770e-02	1.910851593940e-02	1.227941223560e-02
56                  	2.787936504060e-02	1.868344138180e-02	1.914091678490e-02	1.235389122830e-02
57                  	2.676130752090e-02	1.863940598030e-02	1.913303485380e-02	1.216350001840e-02
58                  	2.603538942110e-02	1.843844111900e-02	1.910739036620e-02	1.181046327650e-02
59                  	2.510721998320e-02	1.842898429770e-02	1.901883378150e-02	1.188561458190e-02
60                  	2.415194389460e-02	1.827162068710e-02	1.890103177100e-02	1.184126366550e-02
61                  	2.290773617130e-02	1.790867548670e-02	1.856844861360e-02	1.168820632170e-02
62                  	2.162363513880e-02	1.749932676280e-02	1.818742280040e-02	1.147283074180e-02
63                  	2.038493654200e-02	1.712678126790e-02	1.784246914800e-02	1.121627764370e-02
64                  	1.901699705840e-02	1.677201754300e-02	1.751954807710e-02	1.090858372710e-02
65                  	1.779466767090e-02	1.642481351380e-02	1.720438872720e-02	1.052858660440e-02
66                  	1.652614019430e-02	1.601894306860e-02	1.679248059880e-02	1.004767190560e-02
67                  	1.603009390630e-02	1.551863722090e-02	1.633342678400e-02	9.710828076600e-03
68                  	1.490468006390e-02	1.520165397420e-02	1.611936327290e-02	8.903414044410e-03
69                  	1.431269457330e-02	1.468612768570e-02	1.561785667810e-02	8.226150762840e-03
70                  	1.396501758420e-02	1.429138995820e-02	1.501591078770e-02	7.616359142360e-03
71                  	1.375663571840e-02	1.383683716850e-02	1.440794195890e-02	7.024566256520e-03
72                  	1.370770980070e-02	1.325981508350e-02	1.378712276270e-02	6.480505550730e-03
73                  	1.372154700000e-02	1.273931064130e-02	1.318053222720e-02	6.021044284460e-03
74                  	1.353083666180e-02	1.197967621520e-02	1.266500638050e-02	5.609348079690e-03
75                  	1.345530790200e-02	1.130217253710e-02	1.208302141720e-02	5.286701164010e-03
76                  	1.326500530510e-02	1.062554294110e-02	1.146527347270e-02	5.029699662560e-03
77                  	1.303447467500e-02	1.003403488150e-02	1.084673699180e-02	4.843075067810e-03
78                  	1.272643641670e-02	9.435498735710e-03	1.022876894120e-02	4.706463601890e-03
79                  	1.243881040670e-02	8.865264751900e-03	9.606839215510e-03	4.607634766100e-03
80                  	1.263099900250e-02	8.259274882780e-03	8.949768911340e-03	4.608293907390e-03
81                  	1.171462307780e-02	7.924160758520e-03	8.543226647900e-03	4.470630809110e-03
82                  	1.116938766590e-02	7.199818365610e-03	7.781042764680e-03	4.394962065760e-03
83                  	1.083839503820e-02	6.734990602520e-03	7.246834315400e-03	4.306160499250e-03
84                  	1.058044725500e-02	6.257669032400e-03	6.741710199050e-03	4.241528273110e-03
85                  	9.959201748030e-03	5.992958766690e-03	6.492502509760e-03	4.171294850900e-03
86                  	9.769247353320e-03	5.580967350630e-03	6.015039001660e-03	4.126964594440e-03
87                  	8.740791914860e-03	5.393280959390e-03	5.808875216390e-03	3.912412877880e-03
88                  	8.552823829110e-03	5.362717665870e-03	5.715046612490e-03	3.798828819790e-03
89                  	8.341743091710e-03	5.440151143650e-03	5.828698729720e-03	3.731016669440e-03
90                  	8.265564430330e-03	5.258906935240e-03	5.489665507220e-03	3.639454512260e-03
91                  	7.830900856100e-03	5.186968918040e-03	5.444555260100e-03	3.484609858430e-03
92                  	7.799264686140e-03	5.013542566670e-03	5.299085523510e-03	3.397101510050e-03
93                  	7.456388750230e-03	5.030425629790e-03	5.283350806990e-03	3.343298415790e-03
94                  	7.402975921230e-03	4.843607000490e-03	5.040975394460e-03	3.213010972770e-03
95                  	7.104626442230e-03	4.860117716160e-03	5.030884428960e-03	3.109925996890e-03
96                  	7.252857532570e-03	4.668707163880e-03	4.750973147190e-03	3.025655180890e-03
97                  	7.242606316760e-03	4.781000548470e-03	4.739921308170e-03	2.977123466370e-03
98                  	6.993095066210e-03	4.837801813270e-03	4.826901229720e-03	2.887805194620e-03
99                  	7.109985517760e-03	4.581730068450e-03	4.536773726650e-03	2.832396403210e-03
100                 	7.088664130400e-03	4.540745578900e-03	4.518160376760e-03	2.792381546510e-03
101                 	6.828901990730e-03	4.382627949130e-03	4.415449140910e-03	2.727580557070e-03
102                 	6.690203984750e-03	4.241923209600e-03	4.295136128900e-03	2.667021892350e-03
103                 	6.565205236210e-03	4.441029921000e-03	4.334384606440e-03	2.639391590710e-03
104                 	6.295034107180e-03	4.246682521820e-03	4.232679820310e-03	2.565125680150e-03
105                 	6.144137515690e-03	4.039371868760e-03	4.047409861750e-03	2.510517792740e-03
106                 	5.752765901410e-03	4.019241216630e-03	4.012058486360e-03	2.442449444990e-03
107                 	5.732868255000e-03	3.930954524800e-03	3.930627267250e-03	2.425080023810e-03
108                 	5.616606242310e-03	3.797089009110e-03	3.734334922680e-03	2.384033767010e-03
109                 	5.273114551190e-03	3.732295466120e-03	3.709973100410e-03	2.309742161960e-03
110                 	5.399705488950e-03	4.012734516750e-03	3.909094700530e-03	2.339577898670e-03
111                 	5.090702052920e-03	3.872205915350e-03	3.803730842650e-03	2.257439383550e-03
112                 	5.097127156970e-03	3.644686262420e-03	3.555969912040e-03	2.218731881780e-03
113                 	4.788790218120e-03	3.434769079590e-03	3.323123097080e-03	2.149059489350e-03
114                 	4.678565753190e-03	3.322516824800e-03	3.266350193000e-03	2.131290516940e-03
115                 	4.485946620260e-03	3.236731489360e-03	3.187027387870e-03	2.063684778810e-03
116                 	4.372339483380e-03	3.106028013120e-03	3.053580905770e-03	2.046832727730e-03
117                 	4.179932543360e-03	3.063828323880e-03	3.011412325560e-03	1.996816034130e-03
118                 	4.162366829300e-03	2.992802948440e-03	2.910065988040e-03	1.947637745140e-03
119                 	3.985343170380e-03	2.858599563290e-03	2.789747381750e-03	1.929514835240e-03
120                 	3.833811140490e-03	2.798089673890e-03	2.745748058420e-03	1.884493820120e-03
121                 	3.858929164890e-03	2.683365761490e-03	2.641676277630e-03	1.856180199560e-03
122                 	3.590635164390e-03	2.615311605760e-03	2.580291364800e-03	1.814579364160e-03
123                 	3.604639870680e-03	2.631646125910e-03	2.496810324370e-03	1.796599246060e-03
124                 	3.486329408960e-03	2.559594766200e-03	2.474270795700e-03	1.747114554060e-03
125                 	3.291812791690e-03	2.425406262870e-03	2.354178083610e-03	1.727687542360e-03
126                 	3.290415627560e-03	2.325082897830e-03	2.270715821770e-03	1.692696337000e-03
127                 	3.196250708310e-03	2.240969935210e-03	2.208665529380e-03	1.667256810890e-03
128                 	3.056480086620e-03	2.231931914230e-03	2.213627662880e-03	1.622901789620e-03
129                 	2.983517990760e-03	2.096519687840e-03	2.086429157150e-03	1.615527511950e-03
130                 	2.882051207750e-03	2.003050964820e-03	1.945661904700e-03	1.570760523910e-03
131                 	2.813091053160e-03	1.927913244430e-03	1.935363174480e-03	1.565333166200e-03
132                 	2.711946252810e-03	1.873818179000e-03	1.845178812290e-03	1.536213729490e-03
133                 	2.677709382300e-03	1.852691053930e-03	1.827066532200e-03	1.512184038700e-03
134                 	2.644131644320e-03	1.854432067780e-03	1.778074383540e-03	1.489820352660e-03
135                 	2.535207285920e-03	1.800817902360e-03	1.762932898370e-03	1.462509734510e-03
136                 	2.491250325590e-03	1.765512271930e-03	1.720935447430e-03	1.428812857080e-03
137                 	2.348272923440e-03	1.688716751040e-03	1.668140627630e-03	1.420072167670e-03
138                 	2.345581758300e-03	1.660599940040e-03	1.647907443030e-03	1.395177292170e-03
139                 	2.320253796990e-03	1.615990331910e-03	1.569211286580e-03	1.371657219770e-03
140                 	2.174351227040e-03	1.540627451740e-03	1.544289728620e-03	1.348143672940e-03
141                 	2.129624314530e-03	1.535484918990e-03	1.495469656080e-03	1.325018422810e-03
142                 	2.049214446660e-03	1.463959808130e-03	1.463512350670e-03	1.307033476930e-03
143                 	2.087303964880e-03	1.546582187530e-03	1.478152477030e-03	1.283932531060e-03
144                 	1.944964068850e-03	1.509656858190e-03	1.458243312320e-03	1.274359050260e-03
145                 	1.929420324270e-03	1.436215088420e-03	1.387812551100e-03	1.254208387590e-03
146                 	1.860924698700e-03	1.366666956680e-03	1.356205575020e-03	1.233307999810e-03
147                 	1.850809756420e-03	1.367096398660e-03	1.338110348150e-03	1.216219582750e-03
148                 	1.820649740560e-03	1.330599695870e-03	1.319047405570e-03	1.204728177020e-03
149                 	1.769811966140e-03	1.307491371810e-03	1.305849717340e-03	1.190815065470e-03
150                 	1.699435854610e-03	1.285095795490e-03	1.294168192290e-03	1.173202436000e-03
151                 	1.825670203890e-03	1.300292712700e-03	1.309086465400e-03	1.171691501610e-03
152                 	1.691209414200e-03	1.230400497970e-03	1.223847115730e-03	1.151204841950e-03
153                 	1.679592351690e-03	1.124916230750e-03	1.135259556650e-03	1.135939659230e-03
154                 	1.581384185620e-03	1.078508393760e-03	1.101008193880e-03	1.116190681310e-03
155                 	1.498933141850e-03	1.016157330810e-03	1.015141234180e-03	1.094468573980e-03
156                 	1.657615716750e-03	1.399884054250e-03	1.295161249160e-03	1.132328752560e-03
157                 	1.476446246120e-03	1.229530491960e-03	1.168911945720e-03	1.086936457470e-03
158                 	1.594086455900e-03	1.075593061490e-03	1.106534612230e-03	1.071266482740e-03
159                 	1.461176613970e-03	1.026605934460e-03	1.046095257480e-03	1.053358392160e-03
160                 	1.505432047310e-03	9.704282106490e-04	9.889388068510e-04	1.033310583320e-03
161                 	1.450861710610e-03	9.139888500030e-04	9.337674105990e-04	1.023490894790e-03
162                 	1.388213123180e-03	8.761855052320e-04	9.054748510960e-04	1.015612239130e-03
163                 	1.375270074360e-03	8.964611243350e-04	9.074693262230e-04	1.015936475230e-03
164                 	1.387898173740e-03	8.755415682550e-04	8.727804544010e-04	1.003435063940e-03
165                 	1.411858724580e-03	8.851456589420e-04	8.682746490330e-04	9.952392229470e-04
166                 	1.366572858700e-03	8.550173905780e-04	8.483331253900e-04	9.840110046230e-04
167                 	1.272784126450e-03	7.923121661700e-04	8.039002781970e-04	9.717672408800e-04
168                 	1.304182984500e-03	7.847205467220e-04	7.972314278150e-04	9.589921195410e-04
169                 	1.283091327600e-03	7.501289957550e-04	7.540954115530e-04	9.509440924240e-04
170                 	1.297832434090e-03	7.882890136750e-04	7.639464625760e-04	9.503412380100e-04
171                 	1.224329103110e-03	7.661969353510e-04	7.501702060390e-04	9.430167740120e-04
172                 	1.246871408900e-03	7.135117484850e-04	7.103280975900e-04	9.379061523010e-04
173                 	1.189575290540e-03	6.775049804040e-04	6.833210750320e-04	9.272499320920e-04
174                 	1.265184552530e-03	8.029644214460e-04	7.311504985160e-04	9.307526290470e-04
175                 	1.172792704790e-03	7.534288999080e-04	7.123880638040e-04	9.180401829890e-04
176                 	1.238287769940e-03	6.568126837650e-04	6.474495775110e-04	9.015387571550e-04
177                 	1.331350824490e-03	1.417506892440e-03	1.011701482390e-03	9.728992596000e-04
178                 	1.186477115690e-03	8.961777235190e-04	7.879449924200e-04	9.102023035500e-04
179                 	1.140506729530e-03	6.667077303550e-04	6.422485935030e-04	8.904483409540e-04
180                 	1.177261116170e-03	6.210430980180e-04	6.183278806980e-04	8.775517776870e-04
181                 	1.082315119180e-03	6.077732608940e-04	6.085342637930e-04	8.759884702190e-04
182                 	1.111766890840e-03	5.857412524130e-04	5.902540800140e-04	8.742361445260e-04
183                 	1.051312759590e-03	5.735260760220e-04	5.757846224980e-04	8.699644153840e-04
184                 	1.114215178380e-03	5.667975874580e-04	5.640858512100e-04	8.634317289030e-04
185                 	1.104047627430e-03	5.646165409980e-04	5.555471665650e-04	8.619409395020e-04
186                 	1.094239867830e-03	5.503427201930e-04	5.409557033780e-04	8.608440606160e-04
187                 	1.061869571970e-03	5.656843416710e-04	5.374960404060e-04	8.588039151810e-04
188                 	1.075777854990e-03	5.549974528250e-04	5.476522516530e-04	8.597533373400e-04
189                 	1.076634834090e-03	5.391349948700e-04	5.293321487740e-04	8.553323540240e-04
190                 	1.060174340790e-03	5.272758062710e-04	5.096227770160e-04	8.490494218050e-04
191                 	1.009395603510e-03	5.421678741080e-04	5.282425462990e-04	8.417486224950e-04
192                 	1.018567957950e-03	5.148338158230e-04	5.018392169480e-04	8.383532138100e-04
193                 	9.916935466950e-04	5.191242556130e-04	4.986942154300e-04	8.364437871310e-04
194                 	1.011090111500e-03	5.081236889680e-04	4.961514610120e-04	8.338985856400e-04
195                 	9.743763461220e-04	5.113706112840e-04	5.003930095650e-04	8.326301923500e-04
196                 	1.051417414460e-03	5.267645496520e-04	5.142932625500e-04	8.340973419880e-04
197                 	9.981343255490e-04	5.098428919350e-04	5.062504158000e-04	8.303840025120e-04
198                 	1.024284348790e-03	4.892696813720e-04	4.890249054690e-04	8.243633082660e-04
199                 	9.854580018670e-04	5.224150969300e-04	5.174827327620e-04	8.192669914080e-04
200                 	1.058910969720e-03	5.188396682270e-04	5.034354028300e-04	8.179485853500e-04
201                 	1.007530898340e-03	5.177582934060e-04	5.075864143640e-04	8.166742611240e-04
202                 	1.031466866950e-03	5.091943114050e-04	4.994529272830e-04	8.132250069990e-04
203                 	9.828428644200e-04	5.092285283130e-04	5.151279049660e-04	8.096659011530e-04
204                 	1.165571872500e-03	5.738449426220e-04	6.977217414260e-04	8.260069674610e-04
205                 	1.057300673350e-03	5.745465926320e-04	6.280825196300e-04	8.102257663910e-04
206                 	1.047678169660e-03	5.107963427340e-04	5.296491551010e-04	7.979011102280e-04
207                 	1.031949822580e-03	5.276884683830e-04	6.012461476070e-04	7.982493470820e-04
208                 	1.334487963400e-03	1.812204843780e-03	2.440084086380e-03	9.757321988570e-04
209                 	1.080650863550e-03	8.812405210010e-04	9.242602633400e-04	7.952872351890e-04
210                 	1.096331763420e-03	5.933575500230e-04	6.134895289090e-04	7.837382930390e-04
211                 	1.016252247210e-03	5.554527776520e-04	5.651937372330e-04	7.807929544270e-04
212                 	1.061507523610e-03	5.603593976430e-04	5.557800151030e-04	7.804510227220e-04
213                 	1.026505134480e-03	5.542742290030e-04	5.616735468180e-04	7.755248104780e-04
214                 	1.034182695930e-03	5.565560417440e-04	5.642855824190e-04	7.712377910650e-04
215                 	9.890327009610e-04	5.423081684340e-04	5.582443752760e-04	7.647885974270e-04
216                 	1.100588478780e-03	5.420889586410e-04	5.703895499850e-04	7.555240260540e-04
217                 	1.079201181780e-03	6.167616513770e-04	6.068604467680e-04	7.452490059420e-04
218                 	1.035549718730e-03	5.426051682940e-04	5.533169806010e-04	7.394061967870e-04
219                 	9.894742351900e-04	5.857320642080e-04	5.805904133570e-04	7.313296569490e-04
220                 	1.022626424090e-03	5.953883459260e-04	5.952243633520e-04	7.204641589570e-04
221                 	9.797133257880e-04	5.948826729050e-04	6.037344374900e-04	7.120471653360e-04
222                 	1.010592143950e-03	5.796774546580e-04	5.882158823650e-04	7.050525947090e-04
223                 	1.168625474780e-03	8.723668895410e-04	7.942072833240e-04	7.253413034070e-04
224                 	1.063863908590e-03	7.666314737630e-04	7.498686202580e-04	7.014361768350e-04
225                 	1.224097718020e-03	2.755267979460e-03	2.133446291220e-03	8.916658542170e-04
226                 	1.090752565870e-03	9.887023980370e-04	9.316964373660e-04	6.930276397230e-04
227                 	1.071847783380e-03	6.558001669950e-04	6.707364593210e-04	6.815580754610e-04
228                 	1.046325280690e-03	6.093691478230e-04	6.200876497330e-04	6.723493542170e-04
229                 	1.058175453050e-03	6.151398892810e-04	6.216412201440e-04	6.657059176720e-04
230                 	1.031005695720e-03	5.903713591070e-04	6.009277882900e-04	6.598071109080e-04
231                 	1.085758602030e-03	5.841855803660e-04	5.938799929590e-04	6.558322240390e-04
232                 	1.050480474260e-03	5.968233095710e-04	6.067238755890e-04	6.517861556170e-04
233                 	1.030099917030e-03	6.167148146520e-04	6.201915581450e-04	6.478861922780e-04
234                 	1.012090772530e-03	5.919638479970e-04	6.029317135220e-04	6.408846312490e-04
235                 	1.016797229330e-03	6.155515376290e-04	6.202946374240e-04	6.333131968050e-04
236                 	1.041702448210e-03	6.358353147080e-04	6.083149197990e-04	6.299787655950e-04
237                 	9.750927603260e-04	6.170445092980e-04	6.244438304670e-04	6.231171504150e-04
238                 	1.009408579040e-03	6.185740615230e-04	6.068734084550e-04	6.186075621450e-04
239                 	9.605334794150e-04	6.084844960280e-04	6.104693393180e-04	6.122320532280e-04
240                 	9.734819632010e-04	5.814904189070e-04	5.807523911730e-04	6.076227407960e-04
241                 	9.549309872520e-04	5.867063621650e-04	5.858807221250e-04	6.049125172460e-04
242                 	9.060245795430e-04	5.709800638090e-04	5.772044386910e-04	5.992707834390e-04
243                 	9.930942675810e-04	5.667942954620e-04	5.718841768120e-04	5.977076391240e-04
244                 	9.388823798550e-04	5.569022820150e-04	5.780334746780e-04	5.951007510580e-04
245                 	9.128955640490e-04	5.632792989310e-04	5.674144374610e-04	5.914153856480e-04
246                 	9.646458543140e-04	5.706592357250e-04	5.762436244110e-04	5.911996012750e-04
247                 	9.400259714660e-04	5.569719645270e-04	5.697611008690e-04	5.899005198330e-04
248                 	9.375196119560e-04	5.460480316740e-04	5.650696377690e-04	5.873995369390e-04
249                 	9.222623095340e-04	5.657862971760e-04	5.650176054830e-04	5.791070457050e-04
250                 	9.426201002830e-04	5.637219819710e-04	5.591631136560e-04	5.765586573610e-04
251                 	9.263379175900e-04	5.565910173370e-04	5.679762400070e-04	5.746256104760e-04
252                 	9.861554230610e-04	5.673299369760e-04	5.606711577250e-04	5.707019432870e-04
253                 	9.350038061520e-04	5.887368890900e-04	5.816477648260e-04	5.680977303050e-04
254                 	9.654532219260e-04	5.596941565130e-04	5.832581281510e-04	5.649583766250e-04
255                 	9.300729476810e-04	5.536246134080e-04	5.657441050520e-04	5.611420757460e-04
256                 	1.022324149360e-03	6.612852023200e-04	6.053123842000e-04	5.602169293150e-04
257                 	9.125273193930e-04	6.078679620130e-04	5.919840685480e-04	5.562490062590e-04
258                 	9.611401763430e-04	5.815186154030e-04	5.752639473630e-04	5.493617482410e-04
259                 	9.252366128350e-04	5.865639059790e-04	5.768246440570e-04	5.477885374240e-04
260                 	9.336140947760e-04	5.859927798680e-04	5.805489192690e-04	5.446547843850e-04
261                 	9.226189767040e-04	5.581828416970e-04	5.648758189200e-04	5.427315541020e-04
262                 	9.101717292450e-04	5.483981822420e-04	5.623346454100e-04	5.371805774610e-04
263                 	8.971664771150e-04	5.605463486910e-04	5.538457987750e-04	5.341105269930e-04
264                 	9.007683656840e-04	5.223103354930e-04	5.357779633090e-04	5.326500511410e-04
265                 	9.243576455190e-04	5.479856179210e-04	5.411951024500e-04	5.263819458490e-04
266                 	8.868092148930e-04	5.153903306510e-04	5.264990107900e-04	5.246101606650e-04
267                 	8.860112961340e-04	5.592601010520e-04	5.515791458710e-04	5.234706325380e-04
268                 	1.153903381550e-03	1.560977187660e-03	1.109418194540e-03	6.113776223310e-04
269                 	1.005838025180e-03	8.489281338430e-04	8.130650158160e-04	5.305479206780e-04
270                 	1.030969322030e-03	6.475722646930e-04	6.702549049710e-04	5.197793167630e-04
271                 	1.204928753310e-03	1.999411011630e-03	1.470728656470e-03	6.346417847910e-04
272                 	1.001171849950e-03	8.688868751400e-04	8.317355971570e-04	5.195018022550e-04
273                 	1.017158663230e-03	6.550226649460e-04	7.085810990970e-04	5.100017110220e-04
274                 	1.002962304700e-03	6.247825290170e-04	6.280904132500e-04	5.011736553740e-04
275                 	8.823664631950e-04	5.783683441730e-04	5.935507008370e-04	4.967310078760e-04
276                 	1.029703689640e-03	5.512057087470e-04	5.557731765470e-04	4.934440171380e-04
277                 	8.943623678030e-04	5.278632788870e-04	5.374628406430e-04	4.906824845070e-04
278                 	9.152869377040e-04	5.180939601250e-04	5.369138195850e-04	4.918922432580e-04
279                 	8.868479439950e-04	5.149417711270e-04	5.395636804690e-04	4.911694169920e-04
280                 	9.382489817470e-04	5.242072412680e-04	5.467082595740e-04	4.929358271760e-04
281                 	8.996439871520e-04	5.160928062070e-04	5.341600155830e-04	4.895220803100e-04
282                 	9.420192224890e-04	4.970482348750e-04	5.117387770410e-04	4.847273372370e-04
283                 	9.859458736300e-04	5.469002018000e-04	5.361113911100e-04	4.772471885590e-04
284                 	9.479224740240e-04	5.542795174790e-04	5.497987363640e-04	4.736096895620e-04
285                 	9.330036372320e-04	5.585628418950e-04	5.460553172450e-04	4.691447760560e-04
286                 	9.157024031530e-04	5.364234634440e-04	5.370361206340e-04	4.677350304370e-04
287                 	8.746488422770e-04	5.462757714010e-04	5.392769132560e-04	4.620248917660e-04
288                 	9.359365386290e-04	5.585407732600e-04	5.564151477030e-04	4.570173245570e-04
289                 	8.942060266170e-04	5.509600490410e-04	5.463552870380e-04	4.519787694820e-04
290                 	9.027931478790e-04	5.384248143650e-04	5.337318842360e-04	4.480608160280e-04
291                 	9.557596602260e-04	5.474093134140e-04	5.466608604410e-04	4.455752113900e-04
292                 	9.318231876110e-04	5.341915943550e-04	5.439865645930e-04	4.425690689620e-04
293                 	8.590598833600e-04	5.388071550040e-04	5.443707974470e-04	4.380148025600e-04
294                 	9.872707386910e-04	5.755862036120e-04	5.442712313420e-04	4.378154630980e-04
295                 	8.839541541200e-04	5.528118038960e-04	5.448310043210e-04	4.341383141030e-04
296                 	9.377700878030e-04	5.804885071270e-04	5.258420386890e-04	4.335646601060e-04
297                 	8.703414220420e-04	5.655167050960e-04	5.362381927130e-04	4.334724570680e-04
298                 	1.011448423610e-03	5.233841055090e-04	5.181900956710e-04	4.326392701720e-04
299                 	1.012499462800e-03	5.767156169210e-04	5.864731119340e-04	4.398530159070e-04
300                 	9.539400904680e-04	5.676274772590e-04	5.632053330600e-04	4.347642304600e-04
301                 	8.696604985920e-04	4.831505335180e-04	4.860853047560e-04	4.298251624720e-04
302                 	9.008728433000e-04	4.540289540030e-04	4.587876036160e-04	4.273920148440e-04
303                 	8.466165578640e-04	4.363333947810e-04	4.459833800400e-04	4.260693804090e-04
304                 	8.966815689110e-04	5.191982178860e-04	5.221284314990e-04	4.308356759750e-04
305                 	8.070040353400e-04	5.092278125190e-04	5.136058439730e-04	4.260585912050e-04
306                 	8.250882164900e-04	4.356461352330e-04	4.381090722300e-04	4.235063992840e-04
307                 	8.374711249780e-04	4.616414196520e-04	4.581361056710e-04	4.243427627960e-04